# vtk DataFile Version 4.0
vtk output
ASCII
DATASET POLYDATA
POINTS 273 float
67.6576 55.2982 0.537415 67.9549 54.6862 0.43022 68.3472 54.1489 0.457008 
68.7372 53.6099 0.49111 69.0934 53.0482 0.431075 69.6421 52.6133 0.460421 
70.1175 52.123 0.48942 70.579 51.6192 0.463141 70.8562 51.0023 0.39806 
71.1806 50.4142 0.410625 71.5461 49.8481 0.447486 71.861 49.2524 0.583881 
71.9774 48.5586 0.644481 72.1512 47.8987 0.78233 72.2982 47.2303 0.978068 
72.4798 46.5803 1.29672 72.7199 45.9566 1.6705 72.8521 45.2902 2.06376 
72.9955 44.6326 2.41601 73.0539 43.9493 2.67894 73.0553 43.2536 2.88621 
73.1798 42.6042 3.11459 73.4538 42.0009 3.39593 73.5354 41.3387 3.75407 
73.6553 40.6901 4.08819 73.7676 40.0414 4.39579 73.9393 39.4046 4.82748 
74.2312 38.7868 5.47235 58.5419 35.1661 5.45739 58.6662 34.8058 5.39966 
58.6025 34.4144 5.35189 58.5658 34.0309 5.30267 58.4557 33.6413 5.27564 
58.6393 33.2864 5.25598 58.567 32.9043 5.2665 58.2625 32.5099 5.30645 
60.702 32.2595 5.33547 60.8702 31.8562 5.3121 60.9405 31.4461 5.29019 
60.9412 31.0333 5.29267 61.0095 30.6177 5.34077 61.0611 30.1987 5.44069 
61.0867 29.7801 5.48375 60.983 29.3702 5.48536 61.0138 28.95 5.51075 
61.0332 28.529 5.51949 61.0093 28.1116 5.51302 60.9757 27.6931 5.55407 
61.0319 27.2595 5.58369 60.663 26.8977 5.59211 53.2872 27.9207 5.57272 
53.0482 27.6806 5.50628 52.9227 27.4202 5.45471 52.8651 27.1451 5.4008 
52.8862 26.8485 5.3395 53.0073 26.5209 5.24425 52.8214 26.2806 5.12395 
52.7553 26.0054 4.99912 52.7333 25.7129 4.91206 52.5635 25.4709 4.83848 
52.7903 25.0804 4.73895 52.5182 24.8792 4.61327 52.2448 24.6855 4.48014 
52.2224 24.3871 4.33872 52.6073 23.8956 4.18179 52.4104 23.6683 3.96472 
52.5432 23.2752 3.77481 52.5731 22.9247 3.59629 52.5541 22.5942 3.40441 
52.3446 22.366 3.25657 52.316 22.0294 3.16952 52.8825 21.3144 3.10844 
52.7293 21.0317 3.0111 52.6851 20.6718 2.98031 52.9243 20.1049 2.98812 
53.0261 19.6162 2.97403 52.5964 19.5099 2.98532 52.4902 19.1639 2.98961 
52.4294 18.7754 2.99147 51.7424 18.9027 2.98047 51.358 18.7961 2.95689 
51.0756 18.608 2.93668 50.6822 18.5246 2.96597 50.3497 18.3907 3.05247 
50.0491 18.2303 3.17265 49.8545 17.9653 3.2955 49.7074 17.6463 3.42088 
50.2295 16.5871 3.38925 49.9995 16.3429 3.13285 49.9771 15.8623 2.65078 
49.9992 15.2875 2.51655 49.6402 15.1697 2.43943 49.4927 14.7806 2.33557 
49.1662 14.6242 2.23058 48.8479 14.4564 2.18435 48.6513 14.1077 2.18957 
48.3728 13.8696 2.25267 48.0135 13.7509 2.41226 47.6431 13.6486 2.69262 
47.0112 14.0079 2.94057 46.7149 13.8044 3.23523 46.382 13.6658 3.54923 
46.0565 13.5176 3.83596 45.819 13.1932 4.0846 45.5002 13.0332 4.26097 
45.1353 12.9807 4.37975 44.709 13.0853 4.45809 44.2579 13.2778 4.51187 
43.9792 13.0644 4.463 43.6991 12.8537 4.31226 43.4172 12.6412 4.11858 
43.3832 11.6705 3.73624 42.8963 12.0846 3.25741 42.5625 12.0125 2.93439 
42.2252 11.9499 2.66112 41.8771 11.9307 2.40534 41.5574 11.7812 2.2684 
41.2023 11.774 2.21344 40.897 11.5224 2.14358 40.5735 11.337 2.06553 
40.2535 11.0965 2.00047 39.8906 11.1144 1.94719 39.5548 10.9204 1.92011 
39.2081 10.7762 1.90205 38.8666 10.5235 1.88434 38.4966 10.5601 1.91299 
38.1228 10.7017 1.96514 37.0351 10.9404 2.05924 36.6723 10.5441 1.92626 
36.3098 10.493 1.73591 35.9379 10.3162 1.53532 35.5883 10.5652 1.42472 
35.2039 10.369 1.37589 34.8603 10.6138 1.30297 34.4904 10.6164 1.34263 
34.1092 10.5682 1.48981 33.7311 10.5561 1.59864 33.3552 10.562 1.63727 
32.9766 10.5576 1.59235 32.6051 10.6025 1.58965 32.2269 10.6318 1.66714 
31.8978 10.8616 1.75349 31.5291 10.9257 1.8026 31.1789 11.0541 1.79225 
30.793 11.0643 1.75563 30.4115 11.0997 1.721 30.0301 11.1463 1.70516 
29.6532 11.214 1.7102 29.2951 11.3386 1.76742 28.8953 11.3651 1.86152 
28.5457 11.5171 1.92804 28.1437 11.5541 1.98583 27.769 11.6585 2.02475 
27.4593 11.8974 2.03007 27.6165 13.025 2.04997 27.3031 13.209 2.03698 
26.9044 13.2415 1.98574 26.5104 13.2939 1.9412 26.2537 13.5799 1.90229 
25.837 13.61 1.91767 25.4346 13.6749 1.97359 25.0739 13.8106 2.04942 
25.0311 14.3941 2.09788 24.7826 14.6748 2.12512 24.558 14.982 2.14093 
24.4341 15.4083 2.11651 24.2672 15.7691 2.12413 23.9874 15.9897 2.1472 
23.6949 16.197 2.15859 23.4104 16.415 2.15219 22.9589 16.4606 2.11221 
22.7336 16.7479 2.01222 22.3019 16.8328 1.90187 22.0467 17.0953 1.83921 
21.9625 17.5127 1.79286 21.6157 17.691 1.76366 21.2044 17.8213 1.84029 
21.222 18.3097 1.98111 21.1182 18.6882 2.15056 21.0756 19.1054 2.39712 
20.9243 19.4336 2.6428 20.7854 19.7675 2.84303 20.5025 20.0012 2.981 
20.4353 20.3793 3.0762 20.0594 20.5589 3.128 19.9761 20.9231 3.16104 
19.6593 21.1483 3.18955 19.3953 21.4091 3.22312 19.1881 21.7042 3.24838 
18.8534 21.9363 3.2815 18.6924 22.2598 3.3338 18.2362 22.4467 3.39532 
18.0569 22.7686 3.45684 17.6909 23.013 3.53716 18.0744 23.5666 3.58641 
17.9193 23.8943 3.64258 17.705 24.201 3.75256 17.6301 24.5577 3.90006 
17.5511 24.9109 4.07113 17.3595 25.2286 4.25157 17.1435 25.5426 4.43585 
16.9967 25.8783 4.65166 16.808 26.2052 4.88762 16.5349 26.5173 5.09385 
16.3148 26.8469 5.31446 16.1506 27.1932 5.47938 16.0599 27.5578 5.52224 
15.9867 27.9283 5.45536 15.767 28.281 5.33701 15.5918 28.6458 5.18622 
15.5853 29.0309 5.06937 15.3384 29.3958 4.95733 15.3984 29.7867 4.87352 
15.48 30.1745 4.83827 15.3927 30.5538 4.81811 15.5753 30.9385 4.78748 
15.4807 31.3187 4.76739 15.4717 31.6998 4.75937 15.3849 32.0852 4.7368 
15.3276 32.4721 4.72949 15.1512 32.8712 4.71991 14.9615 33.279 4.70884 
14.8336 33.6879 4.68882 14.8838 34.0795 4.6604 14.7259 34.5023 4.63942 
14.679 34.9147 4.59812 14.6361 35.3305 4.55401 14.6278 35.7437 4.49888 
14.5191 36.1824 4.45434 14.6196 36.577 4.42383 14.5304 37.021 4.39468 
14.4662 37.4645 4.38241 14.4702 37.8941 4.37387 14.463 38.3316 4.36694 
14.6249 38.7169 4.35946 14.7201 39.1247 4.3598 14.4811 39.6608 4.34352 
14.3673 40.1624 4.3334 14.2616 40.6721 4.31142 14.2021 41.1735 4.26493 
14.3817 41.575 4.21162 14.1322 42.1836 4.14633 14.0825 42.711 4.07417 
13.7296 43.4106 3.95612 13.7334 43.9407 3.82295 13.6486 44.5314 3.69256 
3.74064 50.9851 3.37747 3.91169 51.6872 3.15831 4.2294 52.3042 2.93767 
4.52278 52.9414 2.68679 4.93786 53.5014 2.37101 5.29563 54.1063 1.94943 
5.75773 54.6289 1.68522 6.26241 55.1201 1.32772 6.74861 55.6193 1.01623 
7.25876 56.0905 0.81062 7.79682 56.5205 0.873233 8.25634 57.0141 0.944447 
8.97042 57.2746 0.948314 9.73857 57.4795 0.684005 13.6468 54.5385 0.641872 
11.8242 57.247 0.469234 12.4824 57.4815 0.27874 13.9099 56.857 0.0296075 
14.5845 57 0.0732467 15.4169 56.9378 0.118348 16.0524 57.0795 0.248721 
16.808 57.0486 0.44068 17.2581 57.3882 0.67889 17.7826 57.6202 1.01464 
18.1821 58.0102 1.5333 18.4511 58.5794 2.33686 19.3257 58.192 3.97168 

VERTICES 273 546
1 0 
1 1 
1 2 
1 3 
1 4 
1 5 
1 6 
1 7 
1 8 
1 9 
1 10 
1 11 
1 12 
1 13 
1 14 
1 15 
1 16 
1 17 
1 18 
1 19 
1 20 
1 21 
1 22 
1 23 
1 24 
1 25 
1 26 
1 27 
1 28 
1 29 
1 30 
1 31 
1 32 
1 33 
1 34 
1 35 
1 36 
1 37 
1 38 
1 39 
1 40 
1 41 
1 42 
1 43 
1 44 
1 45 
1 46 
1 47 
1 48 
1 49 
1 50 
1 51 
1 52 
1 53 
1 54 
1 55 
1 56 
1 57 
1 58 
1 59 
1 60 
1 61 
1 62 
1 63 
1 64 
1 65 
1 66 
1 67 
1 68 
1 69 
1 70 
1 71 
1 72 
1 73 
1 74 
1 75 
1 76 
1 77 
1 78 
1 79 
1 80 
1 81 
1 82 
1 83 
1 84 
1 85 
1 86 
1 87 
1 88 
1 89 
1 90 
1 91 
1 92 
1 93 
1 94 
1 95 
1 96 
1 97 
1 98 
1 99 
1 100 
1 101 
1 102 
1 103 
1 104 
1 105 
1 106 
1 107 
1 108 
1 109 
1 110 
1 111 
1 112 
1 113 
1 114 
1 115 
1 116 
1 117 
1 118 
1 119 
1 120 
1 121 
1 122 
1 123 
1 124 
1 125 
1 126 
1 127 
1 128 
1 129 
1 130 
1 131 
1 132 
1 133 
1 134 
1 135 
1 136 
1 137 
1 138 
1 139 
1 140 
1 141 
1 142 
1 143 
1 144 
1 145 
1 146 
1 147 
1 148 
1 149 
1 150 
1 151 
1 152 
1 153 
1 154 
1 155 
1 156 
1 157 
1 158 
1 159 
1 160 
1 161 
1 162 
1 163 
1 164 
1 165 
1 166 
1 167 
1 168 
1 169 
1 170 
1 171 
1 172 
1 173 
1 174 
1 175 
1 176 
1 177 
1 178 
1 179 
1 180 
1 181 
1 182 
1 183 
1 184 
1 185 
1 186 
1 187 
1 188 
1 189 
1 190 
1 191 
1 192 
1 193 
1 194 
1 195 
1 196 
1 197 
1 198 
1 199 
1 200 
1 201 
1 202 
1 203 
1 204 
1 205 
1 206 
1 207 
1 208 
1 209 
1 210 
1 211 
1 212 
1 213 
1 214 
1 215 
1 216 
1 217 
1 218 
1 219 
1 220 
1 221 
1 222 
1 223 
1 224 
1 225 
1 226 
1 227 
1 228 
1 229 
1 230 
1 231 
1 232 
1 233 
1 234 
1 235 
1 236 
1 237 
1 238 
1 239 
1 240 
1 241 
1 242 
1 243 
1 244 
1 245 
1 246 
1 247 
1 248 
1 249 
1 250 
1 251 
1 252 
1 253 
1 254 
1 255 
1 256 
1 257 
1 258 
1 259 
1 260 
1 261 
1 262 
1 263 
1 264 
1 265 
1 266 
1 267 
1 268 
1 269 
1 270 
1 271 
1 272 

POINT_DATA 273
SCALARS DepthArray double
LOOKUP_TABLE default
0.537415 0.43022 0.457008 0.49111 0.431075 0.460421 0.48942 0.463141 0.39806 
0.410625 0.447486 0.583881 0.644481 0.78233 0.978068 1.29672 1.6705 2.06376 
2.41601 2.67894 2.88621 3.11459 3.39593 3.75407 4.08819 4.39579 4.82748 
5.47235 5.45739 5.39966 5.35189 5.30267 5.27564 5.25598 5.2665 5.30645 
5.33547 5.3121 5.29019 5.29267 5.34077 5.44069 5.48375 5.48536 5.51075 
5.51949 5.51302 5.55407 5.58369 5.59211 5.57272 5.50628 5.45471 5.4008 
5.3395 5.24425 5.12395 4.99912 4.91206 4.83848 4.73895 4.61327 4.48014 
4.33872 4.18179 3.96472 3.77481 3.59629 3.40441 3.25657 3.16952 3.10844 
3.0111 2.98031 2.98812 2.97403 2.98532 2.98961 2.99147 2.98047 2.95689 
2.93668 2.96597 3.05247 3.17265 3.2955 3.42088 3.38925 3.13285 2.65078 
2.51655 2.43943 2.33557 2.23058 2.18435 2.18957 2.25267 2.41226 2.69262 
2.94057 3.23523 3.54923 3.83596 4.0846 4.26097 4.37975 4.45809 4.51187 
4.463 4.31226 4.11858 3.73624 3.25741 2.93439 2.66112 2.40534 2.2684 
2.21344 2.14358 2.06553 2.00047 1.94719 1.92011 1.90205 1.88434 1.91299 
1.96514 2.05924 1.92626 1.73591 1.53532 1.42472 1.37589 1.30297 1.34263 
1.48981 1.59864 1.63727 1.59235 1.58965 1.66714 1.75349 1.8026 1.79225 
1.75563 1.721 1.70516 1.7102 1.76742 1.86152 1.92804 1.98583 2.02475 
2.03007 2.04997 2.03698 1.98574 1.9412 1.90229 1.91767 1.97359 2.04942 
2.09788 2.12512 2.14093 2.11651 2.12413 2.1472 2.15859 2.15219 2.11221 
2.01222 1.90187 1.83921 1.79286 1.76366 1.84029 1.98111 2.15056 2.39712 
2.6428 2.84303 2.981 3.0762 3.128 3.16104 3.18955 3.22312 3.24838 
3.2815 3.3338 3.39532 3.45684 3.53716 3.58641 3.64258 3.75256 3.90006 
4.07113 4.25157 4.43585 4.65166 4.88762 5.09385 5.31446 5.47938 5.52224 
5.45536 5.33701 5.18622 5.06937 4.95733 4.87352 4.83827 4.81811 4.78748 
4.76739 4.75937 4.7368 4.72949 4.71991 4.70884 4.68882 4.6604 4.63942 
4.59812 4.55401 4.49888 4.45434 4.42383 4.39468 4.38241 4.37387 4.36694 
4.35946 4.3598 4.34352 4.3334 4.31142 4.26493 4.21162 4.14633 4.07417 
3.95612 3.82295 3.69256 3.37747 3.15831 2.93767 2.68679 2.37101 1.94943 
1.68522 1.32772 1.01623 0.81062 0.873233 0.944447 0.948314 0.684005 0.641872 
0.469234 0.27874 0.0296075 0.0732467 0.118348 0.248721 0.44068 0.67889 1.01464 
1.5333 2.33686 3.97168 
